! Touchstone file exported from HFSS 2023.2.0
!        File:           U:/Fall 2023/Microwave Engineering/Project/MEProject.aedt
!        Generated:      6:38:29 PM  Dec 06, 2023
!        Design:         ResonatorHairpin
!        Project:        MEProject
!        Setup:          Setup1
!        Solution:       Sweep
!
! Variables:
!        AirboxHeight = 30mm
!        AirboxWidth = 30mm
!        BridgeR2 = 0.25
!        F1x = 16.11mm
!        FOffset = 2mm
!        FX = 0.01411mm
!        LegOffset = -0.02
!        LegR1 = 0.4378
!        Len = 23.52mm
!        MicrostripWidth = 1.78mm
!        R1x = 8.961472mm
!        R1y = 12.06mm
!        Thickness = 31mil
!        W50 = 1.85mm
!        WeakGap = 2mm
!
# GHz S MA R 50.000000
! Terminal data exported
! Port[1] = 1
! Port[2] = 2
! Port[3] = 3
! Port[4] = 4
1.5                            0.999523033338948 -63.1254125715066 0.000161198940645239 30.1173578465098 0.00356899950481214 41.6041319202946 0.00345857897019219 4.95494440501535 
                               0.000161198940645239 30.1173578465097 0.999522698694309 -62.936105036435 0.00346079123725579 5.02156225607124 0.00357147354149943 41.7069785715095 
                               0.00356899950481214 41.6041319202946 0.0034607912372558 5.02156225607125 0.0689419695358877 -165.719644963337 0.996529814085202 -74.955228940954 
                               0.00345857897019219 4.95494440501536 0.00357147354149944 41.7069785715096 0.996529814085202 -74.955228940954 0.0689400456592402 -165.507525838123 
! Gamma         0                52.0813101182287 0                52.051000246353  0                0                0                0                
! Port Impedance         50               0                50               0                50               0                50               0                
1.50291909924937               0.999520775190148 -63.2485322768759 0.000161892075987576 29.8619997759469 0.00357657609080125 41.5012342963505 0.00346563234049768 4.78528462048266 
                               0.000161892075987576 29.8619997759469 0.999520439194373 -63.0589998139982 0.00346786039979666 4.85196622850263 0.00357906761526575 41.6042001013085 
                               0.00357657609080125 41.5012342963505 0.00346786039979667 4.85196622850261 0.0690255790575565 -165.869774055151 0.996519560200827 -75.1031742361881 
                               0.00346563234049768 4.78528462048266 0.00357906761526575 41.6042001013087 0.996519560200827 -75.1031742361881 0.0690236405307937 -165.657108452182 
! Gamma         0                52.182764256842  0                52.1523954613491 0                0                0                0                
! Port Impedance         50               0                50               0                50               0                50               0                
1.50583819849875               0.999518509695596 -63.3716532821764 0.00016258718827455 29.6066015704941 0.00358415484127475 41.3982958891029 0.0034726868784393 4.61560308057978 
                               0.000162587188274551 29.606601570494  0.999518172340105 -63.1818966645959 0.00347493079026388 4.68234808788395 0.00358666392006772 41.5013804085391 
                               0.00358415484127476 41.3982958891029 0.00347493079026388 4.68234808788388 0.0691089331169358 -166.019920935591 0.996509306652978 -75.2511312457935 
                               0.00347268687843931 4.6156030805798  0.00358666392006772 41.5013804085392 0.996509306652979 -75.2511312457936 0.0691069798526868 -165.806708007631 
! Gamma         0                52.2842189770098 0                52.2537912582646 0                0                0                0                
! Port Impedance         50               0                50               0                50               0                50               0                
1.50875729774812               0.999516236839911 -63.4947755873217 0.000163284281850949 29.3511637791007 0.00359173574752923 41.2953166976283 0.00347974258010395 4.4458997673789  
                               0.000163284281850949 29.3511637791007 0.999515898116037 -63.3047955890351 0.0034820024047788 4.51270781589639 0.00359426244724022 41.3985194917523 
                               0.00359173574752925 41.2953166976283 0.0034820024047788 4.5127078158963  0.0691920316036693 -166.1700856248  0.996499053505205 -75.3990999874404 
                               0.00347974258010396 4.44589976737891 0.00359426244724021 41.3985194917524 0.996499053505205 -75.3990999874405 0.0691900635141096 -165.956324522458 
! Gamma         0                52.3856742798183 0                52.3551876381867 0                0                0                0                
! Port Impedance         50               0                50               0                50               0                50               0                
1.5116763969975                0.999513956607699 -63.6178991922155 0.000163983361073284 29.0956869480255 0.00359931880080558 41.1922967212337 0.00348679944154905 4.27617466300207 
                               0.000163983361073285 29.0956869480254 0.999513616506682 -63.4276965881091 0.00348907523943282 4.34304539427409 0.00360186318806165 41.2956173497318 
                               0.00359931880080559 41.1922967212337 0.00348907523943281 4.34304539427396 0.0692748744095797 -166.320268142972 0.996488800820754 -75.5470804787574 
                               0.00348679944154906 4.27617466300206 0.00360186318806164 41.2956173497319 0.996488800820754 -75.5470804787575 0.0692728914064292 -166.105958014703 
! Gamma         0                52.4871301663552 0                52.4565846022037 0                0                0                0                
! Port Impedance         50               0                50               0                50               0                50               0                
1.51459549624687               0.999511668983554 -63.7410240967479 0.000164684430309758 28.8401716208647 0.00360690399228873 41.0892359594585 0.00349385745880235 4.10642774962605 
                               0.000164684430309759 28.8401716208647 0.999511327496544 -63.5505996625945 0.00349614929028712 4.17336080480889 0.00360946613375382 41.1926739814964 
                               0.00360690399228875 41.0892359594584 0.00349614929028711 4.17336080480873 0.0693574614286686 -166.470468510348 0.99647854866257 -75.6950727373275 
                               0.00349385745880236 4.10642774962602 0.0036094661337538 41.1926739814965 0.99647854866257 -75.6950727373276 0.0693554634231895 -166.255608502452 
! Gamma         0                52.5885866377064 0                52.5579821514024 0                0                0                0                
! Port Impedance         50               0                50               0                50               0                50               0                
1.51751459549625               0.999509373952057 -63.8641503007988 0.000165387493940264 28.5846183385669 0.00361449131310796 40.9861344120714 0.00350091662786206 3.93665900947787 
                               0.000165387493940265 28.5846183385669 0.999509031070111 -63.6735048132543 0.00350322455337289 4.00365402934585 0.00361707127548209 41.0896893862962 
                               0.00361449131310798 40.9861344120714 0.00350322455337288 4.00365402934567 0.069439792557121 -166.620686747224 0.996468297093295 -75.8430767806919 
                               0.00350091662786207 3.93665900947783 0.00361707127548208 41.0896893862963 0.996468297093295 -75.843076780692 0.0694377794601158 -166.40527600384 
! Gamma         0                52.6900436949589 0                52.6593802868705 0                0                0                0                
! Port Impedance         50               0                50               0                50               0                50               0                
1.52043369474562               0.999507071497776 -63.9872778042348 0.000166092556356349 28.3290276394618 0.00362208075433662 40.8829920790727 0.00350797694469669 3.76686842483944 
                               0.000166092556356349 28.3290276394617 0.99950672721186 -63.7964120408344 0.00351030102469106 3.83392504978799 0.00362467860435522 40.9866635636151 
                               0.00362208075433666 40.8829920790726 0.00351030102469105 3.83392504978778 0.0695218676933051 -166.770922873943 0.996458046175266 -75.9910926263458 
                               0.0035079769446967 3.76686842483942 0.0036246786043552 40.9866635636153 0.996458046175267 -75.9910926263459 0.0695198394151144 -166.554960537049 
! Gamma         0                52.7915013391981 0                52.7607790096942 0                0                0                0                
! Port Impedance         50               0                50               0                50               0                50               0                
1.523352793995                 0.999504761605268 -64.1104066069119 0.000166799621961215 28.073400059273  0.00362967230699242 40.7798089606907 0.00351503840524516 3.59705597804332 
                               0.000166799621961215 28.073400059273  0.999504415906254 -63.9193213460674 0.00351737870021252 3.66417384809173 0.00363228811142557 40.8835965131676 
                               0.00362967230699246 40.7798089606906 0.0035173787002125 3.66417384809148 0.0696036867377763 -166.921176910901 0.996447795970515 -76.1391202917422 
                               0.00351503840524517 3.59705597804326 0.00363228811142555 40.8835965131677 0.996447795970516 -76.1391202917422 0.0696016431882769 -166.704662120311 
! Gamma         0                52.8929595715106 0                52.8621783209609 0                0                0                0                
! Port Impedance         50               0                50               0                50               0                50               0                
1.52627189324437               0.999502444259077 -64.233536708673 0.000167508695169682 27.8177361311469 0.00363726596203717 40.676585057384  0.00352210100541664 3.42722165147717 
                               0.000167508695169682 27.8177361311469 0.999502097137743 -64.0422327296687 0.00352445757587784 3.49440040627173 0.00363989978768887 40.7804882349005 
                               0.00363726596203721 40.6765850573839 0.00352445757587781 3.49440040627145 0.0696852495932774 -167.07144887854 0.996437546540766 -76.2871597942876 
                               0.00352210100541665 3.42722165147712 0.00363989978768884 40.7804882349007 0.996437546540768 -76.2871597942877 0.0696831906818805 -166.854380771904 
! Gamma         0                52.9944183929814 0                52.9635782217563 0                0                0                0                
! Port Impedance         50               0                50               0                50               0                50               0                
1.52919099249374               0.999500119443733 -64.3566681093503 0.000168219780408185 27.5620363856663 0.003644861710377 40.5733203698387 0.00352916474109067 3.25736542758008 
                               0.000168219780408186 27.5620363856663 0.999499770890763 -64.1651461923401 0.0035315376475975 3.32460470639686 0.00364751362408447 40.6773387289905 
                               0.00364486171037704 40.5733203698386 0.00353153764759747 3.32460470639655 0.0697665561647427 -167.221738797355 0.996427297947437 -76.4352111513457 
                               0.00352916474109068 3.25736542758002 0.00364751362408444 40.6773387289907 0.996427297947439 -76.4352111513458 0.0697644818003913 -167.004116510156 
! Gamma         0                53.0958778046961 0                53.0649787131669 0                0                0                0                
! Port Impedance         50               0                50               0                50               0                50               0                
1.53211009174312               0.999497787143757 -64.4798008087642 0.000168932882114751 27.3063013508733 0.00365245954286231 40.4700148989686 0.00353622960811708 3.08748728884428 
                               0.000168932882114751 27.3063013508733 0.99949743714974 -64.2880617347679 0.00353861891125174 3.1547867305921  0.00365512961149524 40.5741479958442 
                               0.00365245954286236 40.4700148989684 0.00353861891125171 3.15478673059177 0.0698476063592988 -167.372046687892 0.996417050251635 -76.5832743802353 
                               0.00353622960811709 3.08748728884421 0.00365512961149521 40.5741479958444 0.996417050251636 -76.5832743802353 0.069845516450466 -167.153869353441 
! Gamma         0                53.1973378077403 0                53.166379796279  0                0                0                0                
! Port Impedance         50               0                50               0                50               0                50               0                
1.53502919099249               0.999495447343656 -64.6029348067221 0.000169648004738966 27.0505315522919 0.00366005945028769 40.3666686459156 0.00354329560231587 2.91758721781709 
                               0.000169648004738967 27.0505315522919 0.999495095899087 -64.410979357622 0.00354570136269047 2.98494646104045 0.00366274774074749 40.4709160360989 
                               0.00366005945028774 40.3666686459155 0.00354570136269044 2.98494646104008 0.0699284000862659 -167.522372570743 0.996406803514157 -76.7313494982286 
                               0.00354329560231589 2.91758721781701 0.00366274774074746 40.4709160360991 0.996406803514159 -76.7313494982287 0.069926294540953 -167.303639320182 
! Gamma         0                53.2987984031981 0                53.2677814721775 0                0                0                0                
! Port Impedance         50               0                50               0                50               0                50               0                
1.53794829024187               0.999493100027924 -64.7260701030212 0.000170365152741981 26.7947275129413 0.00366766142339209 40.2632816120475 0.00355036271947741 2.747665197097   
                               0.000170365152741982 26.7947275129413 0.999492747123201 -64.5338990615587 0.00355278499773344 2.8150838799789  0.00367036800261118 40.3676428506195 
                               0.00366766142339215 40.2632816120473 0.00355278499773341 2.81508387997853 0.070008937257162 -167.672716466552 0.996396557795489 -76.8794365225551 
                               0.00355036271947742 2.74766519709691 0.00367036800261114 40.3676428506196 0.996396557795491 -76.8794365225552 0.070006815982896 -167.453426428848 
! Gamma         0                53.4002595921548 0                53.3691837419485 0                0                0                0                
! Port Impedance         50               0                50               0                50               0                50               0                
1.54086738949124               0.999490745181046 -64.8492066974452 0.000171084330596467 26.5388897533627 0.00367526545285868 40.1598537989587 0.00355743095536217 2.57772120933836 
                               0.000171084330596468 26.5388897533626 0.99949039080647 -64.6568208472176 0.00355986981217003 2.64519896970323 0.00367799038779972 40.2643284405005 
                               0.00367526545285874 40.1598537989586 0.00355986981216999 2.64519896970282 0.0700892177857022 -167.823078396012 0.996386313155805 -77.0275354703966 
                               0.00355743095536218 2.57772120933825 0.00367799038779967 40.2643284405006 0.996386313155807 -77.0275354703967 0.070087080689534 -167.603230697957 
! Gamma         0                53.5017213756942 0                53.4705866066765 0                0                0                0                
! Port Impedance         50               0                50               0                50               0                50               0                
1.54378648874062               0.999488382787492 -64.9723445897679 0.000171805542786616 26.2830187916305 0.003682871529315 40.0563852084687 0.00356450030570093 2.40775523724693 
                               0.000171805542786616 26.2830187916305 0.999488026933268 -64.7797447152245 0.00356695580175938 2.47529171256344 0.00368561488697017 40.160972807063  
                               0.00368287152931506 40.0563852084685 0.00356695580175934 2.47529171256303 0.0701692415878033 -167.973458379865 0.996376069654963 -77.1756463588916 
                               0.00356450030570095 2.40775523724683 0.00368561488697012 40.1609728070633 0.996376069654965 -77.1756463588917 0.0701670885763055 -167.753052146075 
! Gamma         0                53.6031837549012 0                53.5719900674472 0                0                0                0                
! Port Impedance         50               0                50               0                50               0                50               0                
1.54670558798999               0.999486012831722 -65.0954837797495 0.0001725287938081 26.0271151433793 0.00369047964333281 39.9528758426227 0.00357157076619456 2.23776726358469 
                               0.000172528793808101 26.0271151433793 0.999485655487958 -64.9026706661885 0.00357404296223023 2.30536209096865 0.00369324149072308 40.0575759518571 
                               0.00369047964333289 39.9528758426225 0.00357404296223018 2.30536209096819 0.070249008581583 -168.123856438903 0.99636582735251 -77.3237692051309 
                               0.00357157076619458 2.2377672635846  0.00369324149072303 40.0575759518573 0.996365827352513 -77.323769205131 0.0702468395608481 -167.902890791812 
! Gamma         0                53.7046467308588 0                53.6733941253444 0                0                0                0                
! Port Impedance         50               0                50               0                50               0                50               0                
1.54962468723937               0.999483635298186 -65.2186242671401 0.000173254088168077 25.7711793218143 0.00369808978542834 39.8493257036894 0.00357864233251419 2.0677572711652  
                               0.000173254088168077 25.7711793218143 0.99948327645489 -65.0255987007053 0.00358113128928105 2.13541008738227 0.00370087018960266 39.9541378766578 
                               0.00369808978542841 39.8493257036892 0.003581131289281 2.1354100873818  0.0703285186873644 -168.274272593968 0.996355586307674 -77.4719040261614 
                               0.00357864233251421 2.06775727116509 0.00370087018960261 39.954137876658  0.996355586307677 -77.4719040261615 0.0703263335630026 -168.05274665383 
! Gamma         0                53.8061103046514 0                53.7747987814534 0                0                0                0                
! Port Impedance         50               0                50               0                50               0                50               0                
1.55254378648874               0.999481250171318 -65.3417660516765 0.000173981430385138 25.5152118377375 0.00370570194606199 39.7457347941625 0.00358571500030099 1.89772524285843 
                               0.000173981430385139 25.5152118377375 0.999480889818401 -65.1485288193533 0.00358822077857987 1.96543568432708 0.00370850097409664 39.8506585834679 
                               0.00370570194606207 39.7457347941623 0.00358822077857981 1.96543568432658 0.0704077718276756 -168.424706865947 0.996345346579368 -77.620050838982 
                               0.00358571500030102 1.8977252428583  0.00370850097409659 39.8506585834682 0.99634534657937 -77.620050838982 0.0704055705048123 -168.202619750833 
! Gamma         0                53.9075744773618 0                53.8762040368575 0                0                0                0                
! Port Impedance         50               0                50               0                50               0                50               0                
1.55546288573811               0.999478857435545 -65.4649091330849 0.000174710824989318 25.2592131995594 0.00371331611563865 39.6421031167583 0.00359278876516636 1.72767116158687 
                               0.000174710824989318 25.2592131995593 0.999478495562818 -65.2714610226973 0.00359531142576438 1.79543886438115 0.00371613383463641 39.747138074515  
                               0.00371331611563873 39.6421031167581 0.00359531142576432 1.79543886438062 0.0704867679272534 -168.575159275781 0.996335108226185 -77.7682096605467 
                               0.00359278876516638 1.72767116158671 0.00371613383463634 39.7471380745152 0.996335108226188 -77.7682096605468 0.0704845503105278 -168.352510101576 
! Gamma         0                54.0090392500735 0                53.9776098926412 0                0                0                0                
! Port Impedance         50               0                50               0                50               0                50               0                
1.55838198498749               0.99947645707528 -65.5880535110799 0.000175442276522054 25.0031839133191 0.00372093228450753 39.5384306744157 0.00359986362269177 1.55759501032728 
                               0.000175442276522055 25.0031839133191 0.999476093672454 -65.394395311287 0.00360240322644189 1.6254196101796  0.00372376876159695 39.6435763522516 
                               0.00372093228450762 39.5384306744155 0.00360240322644183 1.62541961017908 0.0705655069130443 -168.725629844458 0.996324871306401 -77.9163805077634 
                               0.00359986362269179 1.55759501032712 0.00372376876159689 39.6435763522518 0.996324871306404 -77.9163805077635 0.0705632729066067 -168.50241772486 
! Gamma         0                54.1105046238696 0                54.0790163498883 0                0                0                0                
! Port Impedance         50               0                50               0                50               0                50               0                
1.56130108423686               0.999474049074925 -65.7111991853629 0.000176175789536165 24.7471244827053 0.00372855044296218 39.434717470297  0.00360693956842872 1.38749677211266 
                               0.000176175789536166 24.7471244827052 0.999473684131611 -65.5173316856553 0.0036094961761892 1.45537790441657 0.00373140574529683 39.5399734193558 
                               0.00372855044296227 39.4347174702968 0.00360949617618913 1.455377904416   0.0706439887142054 -168.876118593013 0.99631463587797 -78.0645633974916 
                               0.00360693956842874 1.3874967721125  0.00373140574529677 39.539973419356  0.996314635877973 -78.0645633974917 0.0706417382217155 -168.652342639532 
! Gamma         0                54.2119705998321 0                54.1804234096817 0                0                0                0                
! Port Impedance         50               0                50               0                50               0                50               0                
1.56422018348624               0.999471633418871 -65.8343461556256 0.000176911368595846 24.4910354090666 0.00373617058124061 39.3309635077848 0.0036140165978989 1.21737643002829 
                               0.000176911368595846 24.4910354090666 0.99947126692458 -65.6402701463218 0.00361659027055276 1.28531372984119 0.00373904477599834 39.4363292787285 
                               0.0037361705812407 39.3309635077845 0.00361659027055269 1.28531372984062 0.0707222132621082 -169.026625542532 0.996304401998526 -78.2127583465462 
                               0.00361401659789893 1.21737643002814 0.00373904477599827 39.4363292787288 0.996304401998529 -78.2127583465463 0.0707199461867331 -168.802284864486 
! Gamma         0                54.3134371790441 0                54.2818310731052 0                0                0                0                
! Port Impedance         50               0                50               0                50               0                50               0                
1.56713928273561               0.999469210091499 -65.9574944215461 0.000177649018276621 24.2349171914366 0.00374379268952515 39.2271687904844 0.00362109470659395 1.0472339672164  
                               0.000177649018276622 24.2349171914366 0.99946884203564 -65.7632106937893 0.00362368550504848 1.11522706926244 0.00374668584390731 39.3326439334956 
                               0.00374379268952525 39.227168790484  0.00362368550504841 1.11522706926184 0.0708001804903383 -169.177150714148 0.99629416972538 -78.3609653716929 
                               0.00362109470659397 1.04723396721625 0.00374668584390724 39.3326439334958 0.996294169725384 -78.360965371693 0.0707978967347501 -168.952244418663 
! Gamma         0                54.414904362587  0                54.3832393412409 0                0                0                0                
! Port Impedance         50               0                50               0                50               0                50               0                
1.57005838198499               0.999466779077178 -66.0806439827924 0.000178388743165349 23.978770326543  0.00375141675794267 39.12333332222   0.00362817388997562 0.877069366871762 
                               0.00017838874316535 23.978770326543  0.999466409449056 -65.8861533285471 0.00363078187516187 0.945117905544423 0.00375432893917332 39.2289173870042 
                               0.00375141675794277 39.1233333222197 0.0036307818751618 0.945117905543819 0.0708778903346992 -169.327694129044 0.996283939115521 -78.5091844896524 
                               0.00362817388997564 0.8770693668716  0.00375432893917325 39.2289173870045 0.996283939115524 -78.5091844896525 0.0708755898010727 -169.10222132105 
! Gamma         0                54.5163721515435 0                54.4846482151724 0                0                0                0                
! Port Impedance         50               0                50               0                50               0                50               0                
1.57297748123436               0.999464340360266 -66.2037948390193 0.000179130547860175 23.7225953088318 0.00375904277656433 39.0194571070378 0.00363525414347562 0.706882612246377 
                               0.000179130547860176 23.7225953088318 0.999463969149085 -66.0090980510676 0.00363787937634786 0.774986221611335 0.00376197405188956 39.1251496428257 
                               0.00375904277656444 39.0194571070375 0.00363787937634779 0.774986221610714 0.0709553427332117 -169.478255808449 0.996273710225611 -78.657415717096 
                               0.00363525414347564 0.706882612246211 0.00376197405188948 39.125149642826  0.996273710225615 -78.6574157170962 0.0709530253232229 -169.252215590682 
! Gamma         0                54.6178405469945 0                54.5860576959813 0                0                0                0                
! Port Impedance         50               0                50               0                50               0                50               0                
1.57589658048374               0.999461893925109 -66.3269469898716 0.000179874436970528 23.4663926304765 0.00376667073540588 38.9155401492018 0.00364233546249574 0.536673686644956 
                               0.000179874436970529 23.4663926304764 0.999461521119971 -66.1320448618095 0.00364497800403097 0.604832000442741 0.00376962117209295 39.0213407047516 
                               0.00376667073540599 38.9155401492015 0.00364497800403089 0.604832000442092 0.0710325376261179 -169.628835773641 0.99626348311199 -78.8056590706495 
                               0.00364233546249576 0.536673686644758 0.00376962117209287 39.021340704752  0.996263483111994 -78.8056590706496 0.0710302032409415 -169.402227246639 
! Gamma         0                54.719309550022  0                54.6874677847505 0                0                0                0                
! Port Impedance         50               0                50               0                50               0                50               0                
1.57881567973311               0.999459439756046 -66.4501004349807 0.000180620415117083 23.2101627814014 0.00377430062442739 38.8115824531967 0.00364941784240766 0.366442573429619 
                               0.000180620415117084 23.2101627814013 0.999459065345946 -66.2549937612152 0.00365207775360506 0.434655225078386 0.00377727028976404 38.9174905767965 
                               0.0037743006244275 38.8115824531963 0.00365207775360498 0.434655225077714 0.0711094749558809 -169.779434045948 0.996253257830668 -78.9539145668889 
                               0.00364941784240769 0.366442573429457 0.00377727028976396 38.9174905767968 0.996253257830672 -78.953914566889 0.0711071234961883 -169.552256308046 
! Gamma         0                54.8207791617066 0                54.7888784825611 0                0                0                0                
! Port Impedance         50               0                50               0                50               0                50               0                
1.58173477898249               0.9994569778374  -66.5732551739681 0.000181368486931751 22.9539062492909 0.00378193243353355 38.7075840237241 0.00365650127855314 0.196189256015644 