! Touchstone file exported from HFSS 2023.2.0
!        File:           U:/Fall 2023/Microwave Engineering/Project/MEProject.aedt
!        Generated:      6:42:46 PM  Dec 06, 2023
!        Design:         FilterTuning
!        Project:        MEProject
!        Setup:          Setup1
!        Solution:       Sweep
!
! Variables:
!        Beta1 = 0.4378
!        Beta2 = 0.4378
!        F1Y = 0mm
!        FeedOffset = -0.4mm
!        Len = 23.52mm
!        Resonator1H = 12.077056mm
!        Resonator1W = 5.88mm
!        Resonator2W = 5.88mm
!        Resonator3W = 5.88mm
!        Resonator4W = 5.88mm
!        ResonatorsW = 26.08431mm
!        Spacing1 = 0.79453mm
!        Spacing2 = 0.97525mm
!        Spacing3 = 0.79453mm
!        W = 1.78mm
!        W50 = 1.78mm
!        WeakGap = 0mm
!        a = 0.25
!
# GHz S MA R 50.000000
! Terminal data exported
! Port[1] = 1
! Port[2] = 2
! Port[3] = 3
! Port[4] = 4
1.8                            0.580282106345689 141.497134063537 0.000784837942085541 57.6322830525831 0.80252754368663 64.6337521879171 0.00110022478903535 105.393072460512 
                               0.000784837942085542 57.6322830525831 0.58032234227619 141.427583157055 0.00108427871435228 -74.4479092706475 0.802556626405614 -115.346736920856 
                               0.80252754368663 64.6337521879171 0.00108427871435228 -74.4479092706475 0.583665047729219 167.292017383551 0.00143640045133786 -35.8309892975504 
                               0.00110022478903535 105.393072460512 0.802556626405615 -115.346736920856 0.00143640045133786 -35.8309892975504 0.58346061270294 167.365093123069 
! Gamma         0.0815084478869543 61.6083202999228 0.0916309886277871 62.7664398726201 0                0                0                0                
! Port Impedance         50               0                50               0                50               0                50               0                
1.80100025006252               0.580720975672405 141.412331251987 0.000786127249080808 57.4735993090965 0.802197926997013 64.5583238167517 0.00110141857176131 105.245008139256 
                               0.000786127249080807 57.4735993090967 0.580761947517629 141.342925804312 0.00108545330253918 -74.5958378089439 0.802226803812327 -115.422130431335 
                               0.802197926997013 64.5583238167517 0.00108545330253918 -74.5958378089439 0.584107453342451 167.224882572951 0.00143759726929371 -35.9670176414971 
                               0.00110141857176131 105.245008139256 0.802226803812328 -115.422130431335 0.00143759726929371 -35.9670176414971 0.583903263170796 167.297883476379 
! Gamma         0.0815319104327667 61.6425713066285 0.0916573748088399 62.8013557194275 0                0                0                0                
! Port Impedance         50               0                50               0                50               0                50               0                
1.80200050012503               0.581159994525414 141.327510770628 0.00078741836282737 57.3149589564763 0.801867817510371 64.4828722536832 0.00110261345045607 105.096924424206 
                               0.00078741836282737 57.3149589564764 0.581201701176248 141.258251161976 0.00108662896518536 -74.7437860265047 0.801896489053076 -115.497546990737 
                               0.801867817510371 64.4828722536831 0.00108662896518536 -74.7437860265047 0.584550011122056 167.157718050385 0.00143879450998702 -36.1030907460331 
                               0.00110261345045607 105.096924424206 0.801896489053077 -115.497546990736 0.00143879450998702 -36.1030907460331 0.584346063984868 167.230644011221 
! Gamma         0.0815553666719477 61.6768223707703 0.0916837539587925 62.8362716615431 0                0                0                0                
! Port Impedance         50               0                50               0                50               0                50               0                
1.80300075018755               0.581599162699643 141.242672589598 0.000788711283438454 57.1563617108393 0.801537214518923 64.4073974751472 0.00110380942375198 104.948821229786 
                               0.000788711283438453 57.1563617108393 0.581641603042879 141.173559200256 0.00108780570093257 -74.8917540083381 0.801565681426143 -115.572986622292 
                               0.801537214518923 64.4073974751471 0.00108780570093257 -74.891754008338 0.584992720865324 167.090523795169 0.00143999217003733 -36.2392086582623 
                               0.00110380942375197 104.948821229786 0.801565681426144 -115.572986622292 0.00143999217003733 -36.2392086582623 0.584789014938753 167.163374707608 
! Gamma         0.0815788166098589 61.7110734923877 0.0917101260836654 62.871187699024  0                0                0                0                
! Port Impedance         50               0                50               0                50               0                50               0                
1.80400100025006               0.582038479988698 141.157816679031 0.000790006011023597 56.997807289063  0.801206117314168 64.3318994575798 0.00110500649027278 104.800698470617 
                               0.000790006011023597 56.997807289063  0.582081652907042 141.088849889366 0.00108898350841422 -75.0397418392525 0.801234380229107 -115.648449349232 
                               0.801206117314169 64.3318994575797 0.00108898350841422 -75.0397418392525 0.585435582368206 167.023299786607 0.00144119024605329 -36.3753714250636 
                               0.00110500649027278 104.800698470617 0.801234380229109 -115.648449349232 0.00144119024605329 -36.3753714250636 0.585232115824724 167.09607554554  
! Gamma         0.0816022602518538 61.7453246715188 0.0917364911894693 62.9061038319265 0                0                0                0                
! Port Impedance         50               0                50               0                50               0                50               0                
1.80500125031258               0.582477946184892 141.072943009061 0.000791302545688702 56.839295408775  0.800874525186863 64.2563781774117 0.00110620464863373 104.652556061504 
                               0.000791302545688701 56.8392954087751 0.582521850556976 141.004123199509 0.00109016238625542 -75.187749603867 0.800902584758817 -115.723935194793 
                               0.800874525186863 64.2563781774117 0.00109016238625542 -75.1877496038669 0.585878595425349 166.956046003988 0.00144238873463275 -36.5115790930999 
                               0.00110620464863373 104.652556061504 0.800902584758818 -115.723935194793 0.00144238873463274 -36.5115790930998 0.585675366433764 167.028746505    
! Gamma         0.0816256976032791 61.7795759082035 0.0917628492822077 62.941020060308  0                0                0                0                
! Port Impedance         50               0                50               0                50               0                50               0                
1.80600150037509               0.582917561079211 140.988051549818 0.000792600887535878 56.6808257883665 0.800542437427043 64.1808336110744 0.00110740389744142 104.504393917457 
                               0.000792600887535878 56.6808257883665 0.582962195779603 140.919379100894 0.00109134233307287 -75.3357773865976 0.800570294311417 -115.799444182208 
                               0.800542437427044 64.1808336110744 0.00109134233307287 -75.3357773865976 0.58632175983005 166.88876242659  0.00144358763236264 -36.6478317088061 
                               0.00110740389744142 104.504393917457 0.800570294311418 -115.799444182208 0.00144358763236263 -36.6478317088061 0.58611876655552 166.961387565963 
! Gamma         0.0816491286694733 61.8138272024798 0.0917892003678748 62.9759363842245 0                0                0                0                
! Port Impedance         50               0                50               0                50               0                50               0                
1.80700175043761               0.583357324461339 140.903142271431 0.000793901036663487 56.5223981469799 0.800209853324005 64.1052657349941 0.00110860423529389 104.35621195367  
                               0.000793901036663485 56.5223981469801 0.583402688360554 140.834617563723 0.00109252334747496 -75.483825271668 0.800237508182327 -115.874976334719 
                               0.800209853324006 64.105265734994  0.00109252334747496 -75.483825271668 0.586765075374295 166.821449033674 0.00144478693581914 -36.7841293183999 
                               0.0011086042352939 104.35621195367  0.800237508182327 -115.874976334719 0.00144478693581915 -36.7841293183999 0.586562315978338 166.893998708384 
! Gamma         0.0816725534557689 61.8480785543872 0.0918155444524573 63.0108528037335 0                0                0                0                
! Port Impedance         50               0                50               0                50               0                50               0                
1.80800200050012               0.583797236119623 140.818215144028 0.000795202993165982 56.3640122045236 0.79987677216633 64.0296745255978 0.00110980566078055 104.208010085544 
                               0.00079520299316598 56.3640122045237 0.583843328084131 140.749838558199 0.00109370542806163 -75.6318933430958 0.799904225666266 -115.950531675563 
                               0.79987677216633 64.0296745255977 0.00109370542806163 -75.6318933430959 0.587208541848712 166.754105804492 0.0014459866415676 -36.9204719678684 
                               0.00110980566078055 104.208010085544 0.799904225666267 -115.950531675563 0.0014459866415676 -36.9204719678684 0.587006014489226 166.826579912211 
! Gamma         0.0816959719674894 61.882329963964  0.0918418815419331 63.0457693188908 0                0                0                0                
! Port Impedance         50               0                50               0                50               0                50               0                
1.80900225056264               0.584237295841104 140.733270137731 0.00079650675713395 56.2056676816593 0.799543193241858 63.954059959308  0.00111100817248216 104.059788228672 
                               0.000796506757133948 56.2056676816593 0.584284114733343 140.665042054519 0.00109488857342446 -75.7799816847029 0.79957044605723 -116.026110227985 
                               0.799543193241858 63.9540599593079 0.00109488857342446 -75.7799816847029 0.587652159042608 166.686732718281 0.00144718674616257 -37.0568597029795 
                               0.00111100817248216 104.059788228672 0.799570446057231 -116.026110227985 0.00144718674616257 -37.0568597029794 0.587449861873879 166.759131157372 
! Gamma         0.0817193842099527 61.9165814312497 0.091868211642272 63.0806859297539 0                0                0                0                
! Port Impedance         50               0                50               0                50               0                50               0                
1.81000250062516               0.584677503411478 140.648307222665 0.000797812328653978 56.0473642998144 0.799209115837716 63.878422012547  0.00111221176897083 103.911546298852 
                               0.000797812328653977 56.0473642998145 0.584725048089863 140.580228022883 0.00109607278214658 -75.9280903801036 0.799236168648514 -116.101712015228 
                               0.799209115837717 63.878422012547  0.00109607278214658 -75.9280903801035 0.588095926743929 166.619329754265 0.00144838724614782 -37.1932925692698 
                               0.00111221176897083 103.911546298852 0.799236168648515 -116.101712015228 0.00144838724614782 -37.1932925692697 0.587893857916649 166.691652423786 
! Gamma         0.081742790188468 61.9508329562827 0.0918945347594353 63.1156026363792 0                0                0                0                
! Port Impedance         50               0                50               0                50               0                50               0                
1.81100275068767               0.58511785861511 140.563326368952 0.000799119707808623 55.8891017811789 0.798874539240308 63.8027606617361 0.00111341644880996 103.763284212084 
                               0.000799119707808623 55.8891017811789 0.585166127934044 140.495396433488 0.00109725805280266 -76.0762195127069 0.798901392732707 -116.177337060537 
                               0.798874539240309 63.802760661736  0.00109725805280266 -76.0762195127069 0.588539844739273 166.551896891657 0.00144958813805636 -37.3297706120485 
                               0.00111341644880996 103.763284212084 0.798901392732708 -116.177337060537 0.00144958813805636 -37.3297706120486 0.58833800240055 166.62414369136  
! Gamma         0.0817661899083377 61.9850845391016 0.0919208508993761 63.1505194388226 0                0                0                0                
! Port Impedance         50               0                50               0                50               0                50               0                
1.81200300075019               0.585558361235038 140.478327546709 0.000800428894676406 55.7308798487002 0.798539462735305 63.7270758832921 0.00111462221055432 103.615001884566 
                               0.000800428894676406 55.7308798487002 0.585607354044925 140.410547256526 0.00109844438395896 -76.2243691657205 0.798566117601678 -116.252985387159 
                               0.798539462735306 63.727075883292  0.00109844438395896 -76.2243691657205 0.588983912813897 166.484434109655 0.00145078941841049 -37.4662938764007 
                               0.00111462221055433 103.615001884566 0.798566117601678 -116.252985387159 0.00145078941841049 -37.4662938764006 0.588782295107272 166.556604939984 
! Gamma         0.0817895833748576 62.0193361797458 0.0919471600680396 63.1854363371419 0                0                0                0                
! Port Impedance         50               0                50               0                50               0                50               0                
1.8130032508127                0.585999011052942 140.393310726056 0.000801739889331649 55.5726982260968 0.798203885607671 63.6513676536336 0.00111582905274991 103.466699232709 
                               0.000801739889331649 55.5726982260968 0.586048726200194 140.325680462192 0.00109963177417321 -76.3725394221375 0.798230342546604 -116.328657018343 
                               0.798203885607671 63.6513676536336 0.00109963177417321 -76.3725394221375 0.58942813075168 166.416941387446 0.0014519910837217 -37.6028624071754 
                               0.00111582905274991 103.466699232709 0.798230342546605 -116.328657018343 0.0014519910837217 -37.6028624071755 0.589226735817142 166.489036149538 
! Gamma         0.081812970593315 62.0535878782535 0.0919734622713621 63.2203533313927 0                0                0                0                
! Port Impedance         50               0                50               0                50               0                50               0                
1.81400350087522               0.586439807849173 140.308275877108 0.00080305269184454 55.4145566378449 0.797867807141637 63.575635949175  0.00111703697393401 103.318376173124 
                               0.000803052691844539 55.414556637845  0.586490244176223 140.240796020676 0.00110082022199468 -76.5207303647477 0.797894066857949 -116.404351977339 
                               0.797867807141638 63.575635949175  0.00110082022199468 -76.5207303647477 0.58987249833516 166.349418704204 0.00145319313049087 -37.739476248997 
                               0.00111703697393401 103.318376173124 0.79789406685795 -116.404351977339 0.00145319313049087 -37.739476248997 0.589671324309155 166.421437299887 
! Gamma         0.081836351568991 62.0878396346643 0.0919997575152727 63.2552704216322 0                0                0                0                
! Port Impedance         50               0                50               0                50               0                50               0                
1.81500375093773               0.586880751402713 140.223222969981 0.000804367302280955 55.2564548091935 0.797531226620732 63.4998807463322 0.00111824597263516 103.170032622637 
                               0.000804367302280954 55.2564548091935 0.586931907748026 140.155893902168 0.0011020097259641 -76.6689420761237 0.797557289825483 -116.480070287396 
                               0.797531226620732 63.4998807463321 0.0011020097259641 -76.6689420761237 0.590317015345486 166.281866039092 0.00145439555520811 -37.8761354462523 
                               0.00111824597263516 103.170032622637 0.797557289825484 -116.480070287396 0.00145439555520811 -37.8761354462523 0.590116060360936 166.353808370886 
! Gamma         0.0818597263071589 62.1220914490159 0.0920260458056909 63.2901876079166 0                0                0                0                
! Port Impedance         50               0                50               0                50               0                50               0                
1.81600400100025               0.587321841491209 140.138151974787 0.000805683720702523 55.0983924661509 0.797194143327753 63.424102021517  0.00111945604737312 103.021668498278 
                               0.000805683720702522 55.0983924661511 0.587373716689293 140.070974076856 0.00110320028461371 -76.817174638631 0.797220010738264 -116.555811971768 
                               0.797194143327752 63.4241020215169 0.00110320028461371 -76.817174638631 0.590761681562457 166.214283371258 0.00145559835435289 -38.0128400431004 
                               0.00111945604737312 103.021668498278 0.797220010738266 -116.555811971768 0.00145559835435288 -38.0128400431005 0.590560943748774 166.286149342374 
! Gamma         0.0818830948130851 62.1563433213482 0.0920523271485296 63.3251048903029 0                0                0                0                
! Port Impedance         50               0                50               0                50               0                50               0                
1.81700425106277               0.587763077890932 140.053062861638 0.00080700194716646 54.9403693354991 0.796856556544792 63.3482997511425 0.00112066719665888 102.873283717293 
                               0.000807001947166457 54.9403693354992 0.587815670772349 139.986036514928 0.00110439189646717 -76.9654281344165 0.796882228884661 -116.631577053706 
                               0.796856556544792 63.3482997511424 0.00110439189646717 -76.9654281344166 0.591206496764481 166.14667067984  0.001456801524394 -38.1495900834625 
                               0.00112066719665888 102.873283717293 0.796882228884662 -116.631577053706 0.001456801524394 -38.1495900834625 0.591005974247577 166.218460194182 
! Gamma         0.0819064570920287 62.1905952516994 0.0920786015496922 63.3600222688473 0                0                0                0                
! Port Impedance         50               0                50               0                50               0                50               0                
1.81800450112528               0.588204460376794 139.967955600646 0.000808321981725563 54.7823851447872 0.796518465553232 63.2724739116209 0.00112187941899459 102.72487819714  
                               0.000808321981725559 54.7823851447873 0.58825776976817 139.901081186569 0.00110558456003957 -77.1137026454112 0.796543943552343 -116.707365556463 
                               0.796518465553232 63.2724739116208 0.00110558456003957 -77.1137026454111 0.591651460728587 166.079027943966 0.0014580050617896 -38.286385611025 
                               0.00112187941899459 102.72487819714  0.796543943552344 -116.707365556463 0.0014580050617896 -38.2863856110249 0.591451151630893 166.150740906126 
! Gamma         0.0819298131492411 62.2248472401079 0.0921048690150745 63.3949397436059 0                0                0                0                
! Port Impedance         50               0                50               0                50               0                50               0                
1.8190047511878                0.588645988722349 139.882830161919 0.00080964382442819 54.6244396223293 0.796179869633731 63.1966244793614 0.00112309271287363 102.57645185549  
                               0.000809643824428189 54.6244396223294 0.588700013446387 139.816108061962 0.00110677827383746 -77.2619982533325 0.796205154028273 -116.783177503296 
                               0.796179869633732 63.1966244793613 0.00110677827383747 -77.2619982533325 0.592096573230431 166.011355142747 0.00145920896298725 -38.4232266692415 
                               0.00112309271287363 102.57645185549  0.796205154028274 -116.783177503296 0.00145920896298725 -38.4232266692414 0.591896475670912 166.082991458008 
! Gamma         0.0819531629899677 62.2590992866132 0.0921311295505645 63.4298573146361 0                0                0                0                
! Port Impedance         50               0                50               0                50               0                50               0                
1.82000500125031               0.589087662699763 139.797686515565 0.000810967475318112 54.4665324972162 0.795840768066252 63.1207514307756 0.00112430707678048 102.428004610235 
                               0.000810967475318108 54.4665324972164 0.589142401575253 139.731117111292 0.00110797303635877 -77.410315039673 0.795865859598734 -116.859012917456 
                               0.795840768066252 63.1207514307755 0.00110797303635877 -77.410315039673 0.592541834044267 165.943652255287 0.00146041322442387 -38.5601133013235 
                               0.00112430707678049 102.428004610235 0.795865859598735 -116.859012917456 0.00146041322442387 -38.5601133013236 0.592341946138431 166.015211829622 
! Gamma         0.0819765066194453 62.2933513912533 0.0921573831620411 63.4647749819934 0                0                0                0                
! Port Impedance         50               0                50               0                50               0                50               0                
1.82100525131283               0.589529482079843 139.712524631692 0.000812292934434549 54.3086634993032 0.795501160130035 63.0448547422715 0.00112552250919083 102.279536379479 
                               0.000812292934434549 54.3086634993032 0.589584933921675 139.64610830474  0.00110916884609282 -77.5586530857106 0.795526059549301 -116.934871822202 
                               0.795501160130036 63.0448547422714 0.00110916884609282 -77.5586530857106 0.592987242942969 165.875919260677 0.00146161784252584 -38.6970455502498 
                               0.00112552250919084 102.279536379479 0.795526059549302 -116.934871822202 0.00146161784252584 -38.6970455502499 0.592787562802887 165.947402000746 
! Gamma         0.0819998440429048 62.3276035540678 0.0921836298553763 63.4996927457352 0                0                0                0                
! Port Impedance         50               0                50               0                50               0                50               0                
1.82200550137534               0.589971446631997 139.627344480405 0.00081362020181203 54.1508323592236 0.795161045103628 62.9689343902597 0.00112673900857144 102.131047081552 
                               0.000813620201812028 54.1508323592236 0.59002761025117 139.561081612489 0.0011103657015203 -77.7070124724946 0.795185753164871 -117.010754240785 
                               0.795161045103628 62.9689343902596 0.0011103657015203 -77.7070124724945 0.593432799697999 165.808156137995 0.00146282281370893 -38.8340234587541 
                               0.00112673900857144 102.131047081552 0.795185753164871 -117.010754240785 0.00146282281370893 -38.8340234587541 0.593233325432317 165.87956195115  
! Gamma         0.0820231752655693 62.3618557750942 0.092209869636433 63.5346106059171 0                0                0                0                
! Port Impedance         50               0                50               0                50               0                50               0                
1.82300575143786               0.590413556124266 139.542146031809 0.000814949277480419 53.9930388083771 0.79482042226486 62.8929903511475 0.00112795657338021 101.982536635    
                               0.000814949277480416 53.9930388083772 0.590470430327901 139.476037004716 0.00111156360111329 -77.8553932808563 0.794844939729636 -117.086660196465 
                               0.79482042226486 62.8929903511474 0.00111156360111329 -77.8553932808562 0.593878504079434 165.740362866309 0.00146402813437843 -38.9710470693353 
                               0.00112795657338021 101.982536635    0.794844939729637 -117.086660196465 0.00146402813437843 -38.9710470693352 0.593679233793389 165.811691660589 
! Gamma         0.082046500292655 62.3961080543725 0.092236102511067 63.5695285625962 0                0                0                0                
! Port Impedance         50               0                50               0                50               0                50               0                
1.82400600150037               0.590855810323284 139.45692925601  0.000816280161464761 53.8352825789432 0.794479290890869 62.8170226013452 0.00112917520206611 101.834004958597 
                               0.000816280161464759 53.8352825789433 0.590913393914636 139.390974451602 0.00111276254333514 -78.0037955913957 0.794503618527116 -117.162589712494 
                               0.794479290890869 62.8170226013451 0.00111276254333514 -78.0037955913956 0.594324355855927 165.672539424677 0.00146523380092906 -39.108116424245 
                               0.00112917520206611 101.834004958597 0.794503618527117 -117.162589712494 0.00146523380092906 -39.108116424245 0.59412528765136 165.743791108809 
! Gamma         0.0820698191293705 62.4303603919404 0.0922623284851248 63.6044466158283 0                0                0                0                
! Port Impedance         50               0                50               0                50               0                50               0                
1.82500625156289               0.59129820899431 139.371694123108 0.000817612853785337 53.6775634038694 0.794137650258079 62.7410311172599 0.00113039489306921 101.685451971335 
                               0.000817612853785336 53.6775634038694 0.59135650077278 139.305893923325 0.00111396252664061 -78.1522194844913 0.794161788840127 -117.23854281213 
                               0.794137650258079 62.7410311172598 0.00111396252664061 -78.1522194844913 0.594770354794738 165.604685792143 0.00146643980974507 -39.2452315654985 
                               0.00113039489306921 101.685451971335 0.794161788840127 -117.23854281213 0.00146643980974507 -39.2452315654985 0.594571486770112 165.675860275541 
! Gamma         0.0820931317809185 62.4646127878372 0.0922885475644462 63.6393647656704 0                0                0                0                
! Port Impedance         50               0                50               0                50               0                50               0                
1.82600650162541               0.591740751901189 139.286440603207 0.0008189473544575 53.5198810168827 0.793795499642223 62.6650158753012 0.00113161564482063 101.536877592438 
                               0.000818947354457499 53.5198810168828 0.591799750662334 139.220795390062 0.00111516354947571 -78.3006650402887 0.793819449950812 -117.314519518627 
                               0.793795499642223 62.6650158753011 0.00111516354947571 -78.3006650402887 0.5952165006617  165.536801947742 0.00146764615720022 -39.3823925348629 
                               0.00113161564482063 101.536877592438 0.793819449950813 -117.314519518627 0.00146764615720022 -39.3823925348629 0.595017830912111 165.607899140507 
! Gamma         0.0821164382524933 62.4988652421014 0.0923147597548622 63.6742830121784 0                0                0                0                
! Port Impedance         50               0                50               0                50               0                50               0                
1.82700675168792               0.592183438806365 139.201168666411 0.000820283663491665 53.3622351524864 0.793452838318335 62.5889768518787 0.0011328374557425 101.388281741358 
                               0.000820283663491664 53.3622351524865 0.592243143341912 139.135678821991 0.00111636561027774 -78.4491323387028 0.793476601140629 -117.390519855241 
                               0.793452838318335 62.5889768518787 0.00111636561027775 -78.4491323387028 0.595662793221225 165.468887870499 0.00146885283965781 -39.5195993738609 
                               0.0011328374557425 101.388281741358 0.79347660114063 -117.39051985524 0.00146885283965781 -39.5195993738609 0.595464319838422 165.53990768342  
! Gamma         0.0821397385492825 62.5331177547713 0.0923409650621952 63.7092013554086 0                0                0                0                
! Port Impedance         50               0                50               0                50               0                50               0                
1.82800700175044               0.592626269470889 139.115878282818 0.000821621780893289 53.2046255459553 0.793109665560744 62.5129140234005 0.00113406032424804 101.239664337771 