! Touchstone file exported from HFSS 2018.2.0
!        File:           U:/Fall 2023/Microwave Engineering/Project/redo/Tuning_Circuit.aedt
!        Generated:      10:28:54 PM  Dec 10, 2023
!        Design:         HFSSDesign1
!        Project:        Tuning_Circuit
!        Setup:          Setup1
!        Solution:       Sweep
!
! Variables:
!        AirboxHeight = 20mm
!        AirboxWidth = 45mm
!        Beta1 = 0.405
!        Beta2 = 0.405
!        F1X = 6.177400342775mm
!        F1Y = 0mm
!        F2X = 13.822599657225mm
!        F2Y = 36.25296916076mm
!        FeedLen = 8.74703083924mm
!        FeedOffset = 0.341mm
!        Len = 24.95604769mm
!        R1Beta1 = 0.3999375
!        Resonator1H = 11.88719931445mm
!        Resonator1W = 6.28892401788mm
!        Resonator1X = 4.056400342775mm
!        Resonator1Y = 8.74703083924mm
!        Resonator2W = 6.28892401788mm
!        Resonator2X = 5.836400342775mm
!        Resonator2Y = 15.70798035712mm
!        Resonator3W = 6.28892401788mm
!        Resonator3X = 4.056400342775mm
!        Resonator3Y = 23.003095625mm
!        Resonator4W = 6.28892401788mm
!        Resonator4X = 5.836400342775mm
!        Resonator4Y = 29.96404514288mm
!        ResonatorsW = 27.50593832152mm
!        Spacing1 = 0.6720255mm
!        Spacing2 = 1.00619125mm
!        Spacing3 = 0.6720255mm
!        Thickness = 31mil
!        W = 1.78mm
!        W50 = 1.78mm
!        WeakGap = 0mm
!        a = 0.252
!
# GHZ S MA R 50.000000
! Modal data exported
! Port[1] = 1:1
! Port[2] = 2:1
2                0.990940631344098 147.055348024892 0.000240609280419527 56.8727497997442 0.000240609280419529 56.8727497997441 0.990909699995166 146.792566397667 
! Gamma         !               0.176890230471755 69.4691023004477 0.161629721864959 69.2770958850645 
! Port Impedance50               0                50               0                

2.00222469410456 0.990934885284939 146.868593250959 0.000241302116796972 56.6827608218509 0.000241302116796967 56.6827608218519 0.990903675617434 146.60457863813  
! Gamma         !               0.177037011501774 69.5464529655525 0.161766759662757 69.3542418512901 
! Port Impedance50               0                50               0                

2.00444938820912 0.990929115202912 146.681865703784 0.000242000183483462 56.4927857674653 0.000242000183483454 56.4927857674657 0.990897629232416 146.416621855976 
! Gamma         !               0.177183766211481 69.6238040302006 0.161903776137017 69.4313882218016 
! Port Impedance50               0                50               0                

2.00667408231368 0.990923321153753 146.4951649133   0.000242703524447161 56.3028244369349 0.000242703524447145 56.3028244369374 0.990891560911695 146.228695591539 
! Gamma         !               0.177330494653181 69.7011554948896 0.16204077133179 69.5085349970881 
! Port Impedance50               0                50               0                

2.00889877641824 0.990917503190065 146.308490408161 0.000243412184023413 56.1128766220326 0.000243412184023409 56.112876622032  0.990885470723393 146.040799383871 
! Gamma         !               0.177477196879036 69.7785073601169 0.162177745291007 69.5856821776381 
! Port Impedance50               0                50               0                

2.0111234705228  0.99091166136132 146.121841715727 0.000244126206918578 55.9229421060259 0.000244126206918565 55.9229421060272 0.990879358732175 145.852932770729 
! Gamma         !               0.177623872941072 69.8558596263795 0.162314698058486 69.6628297639402 
! Port Impedance50               0                50               0                

2.01334816462736 0.990905795713849 145.935218362063 0.000244845638213879 55.7330206637748 0.000244845638213857 55.733020663778  0.990873224999246 145.665095288567 
! Gamma         !               0.177770522891175 69.9332122941744 0.162451629677928 69.7399777564828 
! Port Impedance50               0                50               0                

2.01557285873192 0.990899906290853 145.748619871918 0.000245570523369247 55.5431120618189 0.000245570523369238 55.5431120618193 0.990867069582357 145.477286472525 
! Gamma         !               0.177917146781093 70.0105653639982 0.16258854019292 69.8171261557538 
! Port Impedance50               0                50               0                

2.01779755283648 0.990893993132391 145.562045768724 0.000246300908227337 55.3532160584597 0.000246300908227331 55.3532160584605 0.9908608925358  145.289505856423 
! Gamma         !               0.178063744662439 70.0879188363473 0.162725429646933 69.8942749622412 
! Port Impedance50               0                50               0                

2.02002224694105 0.990888056275389 145.375495574581 0.000247036839017461 55.1633324038598 0.000247036839017438 55.1633324038645 0.990854693910412 145.101752972746 
! Gamma         !               0.178210316586687 70.1652727117179 0.162862298083326 69.9714241764325 
! Port Impedance50               0                50               0                

2.02224694104561 0.990882095753634 145.188968810247 0.000247778362359661 54.9734608401346 0.00024777836235966 54.9734608401329 0.990848473753579 144.914027352641 
! Gamma         !               0.178356862605176 70.242626990606  0.162999145545343 70.0485737988154 
! Port Impedance50               0                50               0                

2.02447163515017 0.990876111597776 145.002464995131 0.000248525525268904 54.7836011014172 0.000248525525268899 54.7836011014181 0.990842232109233 144.726328525898 
! Gamma         !               0.178503382769108 70.3199816735072 0.163135972076114 70.125723829877  
! Port Impedance50               0                50               0                

2.02669632925473 0.990870103835329 144.815983647276 0.000249278375159108 54.5937529139891 0.000249278375159098 54.5937529139893 0.990835969017855 144.53865602095  
! Gamma         !               0.178649877129551 70.3973367609169 0.16327277771866 70.2028742701042 
! Port Impedance50               0                50               0                

2.02892102335929 0.990864072490667 144.629524283354 0.00025003695984748 54.4039159963323 0.000250036959847463 54.4039159963346 0.990829684516478 144.351009364855 
! Gamma         !               0.17879634573744 70.4746922533306 0.163409562515885 70.2800251199841 
! Port Impedance50               0                50               0                

2.03114571746385 0.990858017585027 144.443086418655 0.000250801327558751 54.2140900592457 0.00025080132755874 54.2140900592456 0.990823378638688 144.163388083291 
! Gamma         !               0.178942788643572 70.5520481512431 0.163546326510583 70.3571763800032 
! Port Impedance50               0                50               0                

2.03337041156841 0.990851939136511 144.25666956707  0.000251571526929547 54.0242748059162 0.000251571526929539 54.024274805915  0.990817051414626 143.97579170054  
! Gamma         !               0.179089205898613 70.6294044551492 0.163683069745439 70.4343280506477 
! Port Impedance50               0                50               0                

2.03559510567297 0.990845837160081 144.070273241088 0.000252347607012764 53.8344699320226 0.000252347607012741 53.8344699320256 0.99081070287099 143.788219739486 
! Gamma         !               0.179235597553097 70.7067611655434 0.163819792263023 70.5114801324041 
! Port Impedance50               0                50               0                

2.03781979977753 0.990839711667561 143.88389695178  0.000253129617282044 53.6446751258223 0.000253129617282039 53.6446751258217 0.990804333031037 143.600671721594 
! Gamma         !               0.179381963657423 70.7841182829201 0.163956494105796 70.5886326257582 
! Port Impedance50               0                50               0                

2.04004449388209 0.990833562667645 143.697540208789 0.00025391760763633 53.4548900682347 0.000253917607636303 53.4548900682371 0.990797941914586 143.41314716691  
! Gamma         !               0.17952830426186 70.8614758077732 0.16409317531611 70.6657855311959 
! Port Impedance50               0                50               0                

2.04226918798665 0.990827390165882 143.511202520319 0.000254711628404384 53.2651144329402 0.000254711628404366 53.2651144329408 0.990791529538018 143.225645594041 
! Gamma         !               0.179674619416544 70.9388337405967 0.164229835936207 70.7429388492026 
! Port Impedance50               0                50               0                

2.04449388209121 0.990821194164691 143.324883393123 0.000255511730349503 53.0753478864647 0.000255511730349492 53.0753478864645 0.990785095914285 143.038166520151 
! Gamma         !               0.17982090917148 71.0161920818841 0.164366476008217 70.8200925802639 
! Port Impedance50               0                50               0                

2.04671857619577 0.990814974663355 143.138582332493 0.00025631796467422 52.8855900882671 0.000256317964674219 52.8855900882668 0.990778641052904 142.850709460946 
! Gamma         !               0.179967173576545 71.0935508321289 0.164503095574165 70.8972467248647 
! Port Impedance50               0                50               0                

2.04894327030033 0.990808731658024 142.952298842244 0.000257130383025029 52.6958406908414 0.000257130383025019 52.6958406908415 0.990772164959967 142.663273930664 
! Gamma         !               0.180113412681482 71.170909991824  0.164639694675965 70.9744012834902 
! Port Impedance50               0                50               0                

2.05116796440489 0.990802465141711 142.76603242471  0.000257949037497306 52.5060993397882 0.000257949037497296 52.5060993397883 0.990765667638142 142.475859442065 
! Gamma         !               0.180259626535909 71.2482695614626 0.164776273355423 71.0515562566249 
! Port Impedance50               0                50               0                

2.05339265850946 0.990796175104298 142.579782580723 0.000258773980640159 52.3163656739155 0.00025877398064014 52.3163656739156 0.99075914908667 142.288465506417 
! Gamma         !               0.180405815189311 71.3256295415372 0.164912831654239 71.1287116447536 
! Port Impedance50               0                50               0                

2.05561735261402 0.990789861532538 142.393548809609 0.000259605265461431 52.1266393253246 0.000259605265461432 52.1266393253231 0.990752609301379 142.101091633489 
! Gamma         !               0.180551978691048 71.4029899325404 0.165049369614004 71.2058674483605 
! Port Impedance50               0                50               0                

2.05784204671858 0.990783524410051 142.20733060917  0.000260442945432758 51.9369199194941 0.000260442945432749 51.936919919491  0.990746048274681 141.913737331533 
! Gamma         !               0.180698117090348 71.4803507349642 0.165185887276204 71.2830236679297 
! Port Impedance50               0                50               0                

2.06006674082314 0.990777163717327 142.021127475676 0.000261287074494635 51.7472070753698 0.000261287074494631 51.7472070753708 0.990739465995574 141.726402107279 
! Gamma         !               0.180844230436316 71.5577119493008 0.165322384682216 71.3601803039453 
! Port Impedance50               0                50               0                

2.0622914349277  0.990770779431729 141.834938903849 0.000262137707061672 51.5575004054613 0.000262137707061648 51.5575004054622 0.990732862449649 141.53908546592  
! Gamma         !               0.180990318777927 71.6350735760419 0.165458861873314 71.4373373568909 
! Port Impedance50               0                50               0                

2.06451612903226 0.990764371527492 141.648764386854 0.000262994898027726 51.3677995159149 0.00026299489802771 51.3677995159173 0.990726237619092 141.351786911099 
! Gamma         !               0.18113638216403 71.7124356156792 0.165595318890664 71.51449482725   
! Port Impedance50               0                50               0                

2.06674082313682 0.990757939975725 141.462603416284 0.00026385870277138 51.1781040066058 0.000263858702771371 51.1781040066044 0.990719591482689 141.1645059449   
! Gamma         !               0.181282420643348 71.7897980687037 0.165731755775328 71.591652715506  
! Port Impedance50               0                50               0                

2.06896551724138 0.990751484744414 141.276455482149 0.000264729177161228 50.9884134712258 0.000264729177161218 50.9884134712258 0.990712924015828 140.977242067832 
! Gamma         !               0.18142843426448 71.8671609356068 0.165868172568263 71.6688110221421 
! Port Impedance50               0                50               0                

2.07119021134594 0.990745005798423 141.090320072861 0.000265606377561398 50.7987274973629 0.000265606377561386 50.7987274973642 0.990706235190506 140.789994778821 
! Gamma         !               0.181574423075897 71.9445242168793 0.166004569310321 71.745969747641  
! Port Impedance50               0                50               0                

2.0734149054505  0.99073850309949 140.904196675222 0.000266490360837057 50.6090456665969 0.000266490360837056 50.6090456665951 0.990699524975329 140.602763575196 
! Gamma         !               0.181720387125948 72.0218879130117 0.166140946042251 71.8231288924857 
! Port Impedance50               0                50               0                

2.07563959955506 0.990731976606238 140.718084774414 0.000267381184360116 50.4193675545639 0.000267381184360091 50.4193675545647 0.99069279333552 140.415547952674 
! Gamma         !               0.181866326462856 72.0992520244947 0.166277302804697 71.9002884571585 
! Port Impedance50               0                50               0                

2.07786429365962 0.99072542627417 140.53198385398  0.000268278906014761 50.2296927310693 0.000268278906014756 50.2296927310685 0.990686040232922 140.228347405351 
! Gamma         !               0.182012241134722 72.1766165518182 0.166413639638202 71.9774484421418 
! Port Impedance50               0                50               0                

2.08008898776418 0.990718852055672 140.345893395815 0.000269183584203445 50.0400207601384 0.000269183584203421 50.0400207601393 0.990679265625998 140.041161425687 
! Gamma         !               0.182158131189523 72.2539814954724 0.166549956583204 72.0546088479177 
! Port Impedance50               0                50               0                

2.08231368186874 0.990712253900015 140.159812880152 0.000270095277852538 49.8503512001229 0.000270095277852529 49.8503512001214 0.990672469469846 139.853989504496 
! Gamma         !               0.182303996675112 72.3313468559469 0.166686253680039 72.1317696749683 
! Port Impedance50               0                50               0                

2.0845383759733  0.990705631753363 139.973741785546 0.000271014046418441 49.6606836037616 0.000271014046418425 49.6606836037637 0.990665651716194 139.666831130926 
! Gamma         !               0.182449837639222 72.4087126337314 0.166822530968942 72.208930923775  
! Port Impedance50               0                50               0                

2.08676307007786 0.99069898555876 139.787679588863 0.000271939949893432 49.471017518286  0.00027193994989341 49.4710175182873 0.990658812313406 139.479685792457 
! Gamma         !               0.182595654129463 72.486078829315  0.166958788490045 72.2860925948195 
! Port Impedance50               0                50               0                

2.08898776418242 0.990692315256147 139.601625765266 0.000272873048811871 49.2813524854766 0.000272873048811861 49.2813524854749 0.990651951206494 139.292552974876 
! Gamma         !               0.182741446193323 72.563445443187  0.167095026283379 72.3632546885832 
! Port Impedance50               0                50               0                

2.09121245828699 0.990685620782358 139.415579788197 0.00027381340425636 49.0916880417486 0.00027381340425635 49.091688041747  0.990645068337114 139.105432162271 
! Gamma         !               0.18288721387817 72.6408124758361 0.167231244388874 72.4404172055471 
! Port Impedance50               0                50               0                

2.09343715239155 0.990678902071121 139.229541129369 0.000274761077863938 48.9020237182392 0.000274761077863932 48.9020237182384 0.990638163643575 138.918322837018 
! Gamma         !               0.183032957231253 72.7181799277511 0.167367442846361 72.5175801461922 
! Port Impedance50               0                50               0                

2.09566184649611 0.990672159053062 139.043509258748 0.000275716131832539 48.7123590408729 0.000275716131832522 48.7123590408716 0.990631237060845 138.73122447976  
! Gamma         !               0.183178676299698 72.7955477994203 0.167503621695569 72.5947435109992 
! Port Impedance50               0                50               0                

2.09788654060067 0.990665391655706 138.857483644538 0.000276678628927289 48.5226935304474 0.000276678628927273 48.5226935304464 0.990624288520556 138.544136569401 
! Gamma         !               0.183324371130512 72.872916091332  0.167639780976127 72.6719073004486 
! Port Impedance50               0                50               0                

2.10011123470523 0.990658599803481 138.67146375317  0.000277648632487171 48.3330267026959 0.000277648632487159 48.3330267026939 0.990617317951005 138.357058583089 
! Gamma         !               0.183470041770585 72.9502848039742 0.167775920727566 72.7490715150209 
! Port Impedance50               0                50               0                

2.10233592880979 0.990651783417719 138.485449049283 0.000278626206431494 48.143358068376  0.000278626206431492 48.1433580683742 0.990610325277166 138.169989996201 
! Gamma         !               0.183615688266687 73.0276539378346 0.167912040989317 72.826236155196  
! Port Impedance50               0                50               0                

2.10456062291435 0.990644942416658 138.299438995712 0.000279611415266716 47.9536871333333 0.000279611415266693 47.9536871333342 0.990603310420693 137.982930282329 
! Gamma         !               0.18376131066547 73.1050234934008 0.168048141800712 72.903401221454  
! Port Impedance50               0                50               0                

2.10678531701891 0.990638076715446 138.113433053472 0.000280604324093118 47.7640133985799 0.0002806043240931 47.7640133985801 0.990596273299921 137.795878913267 
! Gamma         !               0.183906909013468 73.1823934711601 0.168184223200987 72.9805667142746 
! Port Impedance50               0                50               0                

2.10901001112347 0.990631186226143 137.927430681745 0.000281604998611755 47.5743363603581 0.000281604998611757 47.574336360357  0.990589213829878 137.608835358998 
! Gamma         !               0.184052483357097 73.2597638715997 0.168320285229276 73.0577326341375 
! Port Impedance50               0                50               0                

2.11123470522803 0.990624270857719 137.74143133786  0.000282613505131411 47.3846555102206 0.000282613505131396 47.3846555102196 0.990582131922288 137.421799087672 
! Gamma         !               0.184198033742657 73.3371346952064 0.168456327924619 73.1348989815218 
! Port Impedance50               0                50               0                

2.11345939933259 0.990617330516067 137.555434477282 0.000283629910575671 47.1949703350875 0.000283629910575669 47.1949703350873 0.990575027485577 137.234769565602 
! Gamma         !               0.184343560216333 73.414505942467  0.168592351325957 73.2120657569069 
! Port Impedance50               0                50               0                

2.11568409343715 0.990610365103995 137.369439553596 0.000284654282490079 47.0052803173281 0.000284654282490065 47.0052803173289 0.990567900424879 137.047746257238 
! Gamma         !               0.18448906282419 73.4918776138679 0.168728355472134 73.2892329607717 
! Port Impedance50               0                50               0                

2.11790878754171 0.990603374521233 137.183446018488 0.000285686689049387 46.815584934817  0.000285686689049354 46.8155849348179 0.990560750642039 136.86072862516  
! Gamma         !               0.184634541612181 73.5692497098953 0.168864340401898 73.3664005935949 
! Port Impedance50               0                50               0                

2.12013348164627 0.990596358664437 136.997453321733 0.000286727199064897 46.6258836610078 0.000286727199064881 46.6258836610066 0.990553578035628 136.67371613006  
! Gamma         !               0.184779996626142 73.6466222310354 0.169000306153902 73.4435686558551 
! Port Impedance50               0                50               0                

2.12235817575083 0.990589317427187 136.811460911176 0.000287775881992005 46.4361759649879 0.000287775881992 46.4361759649888 0.990546382500935 136.486708230725 
! Gamma         !               0.184925427911795 73.7239951777738 0.1691362527667  73.5207371480308 
! Port Impedance50               0                50               0                

2.1245828698554  0.990582250699999 136.625468232718 0.000288832807937689 46.2464613115549 0.00028883280793767 46.2464613115548 0.990539163929988 136.299704384024 
! Gamma         !               0.185070835514748 73.8013685505963 0.169272180278754 73.5979060706001 
! Port Impedance50               0                50               0                

2.12680756395996 0.990575158370314 136.439474730299 0.000289898047668148 46.0567391612683 0.000289898047668137 46.0567391612682 0.990531922211549 136.112704044891 
! Gamma         !               0.185216219480494 73.8787423499882 0.169408088728429 73.675075424041  
! Port Impedance50               0                50               0                

2.12903225806452 0.990568040322513 136.253479845882 0.000290971672616629 45.8670089705171 0.000290971672616605 45.8670089705179 0.990524657231126 135.925706666308 
! Gamma         !               0.185361579854412 73.9561165764347 0.169543978153995 73.7522452088313 
! Port Impedance50               0                50               0                

2.13125695216908 0.990560896437916 136.067483019433 0.00029205375489127 45.6772701915748 0.000292053754891252 45.6772701915749 0.990517368870979 135.73871169929  
! Gamma         !               0.185506916681771 74.0334912304209 0.169679848593628 73.8294154254487 
! Port Impedance50               0                50               0                

2.13348164627364 0.990553726594782 135.881483688909 0.000293144367283105 45.4875222726659 0.000293144367283076 45.4875222726673 0.990510057010124 135.551718592872 
! Gamma         !               0.185652230007723 74.1108663124313 0.16981570008541 73.9065860743706 
! Port Impedance50               0                50               0                

2.1357063403782  0.990546530668315 135.695481290239 0.000294243583274083 45.2977646580142 0.000294243583274076 45.297764658013  0.990502721524339 135.364726794085 
! Gamma         !               0.185797519877312 74.1882418229506 0.16995153266733 73.9837571560743 
! Port Impedance50               0                50               0                

2.13793103448276 0.990539308530665 135.509475257305 0.000295351477045347 45.1079967879063 0.000295351477045334 45.1079967879057 0.990495362286176 135.177735747948 
! Gamma         !               0.185942786335467 74.2656177624632 0.170087346377283 74.0609286710367 
! Port Impedance50               0                50               0                

2.14015572858732 0.990532060050931 135.323465021929 0.000296468123485511 44.9182180987382 0.000296468123485478 44.9182180987404 0.990487979164961 134.990744897444 
! Gamma         !               0.186088029427007 74.342994131453  0.170223141253069 74.1381006197346 
! Port Impedance50               0                50               0                

2.14238042269188 0.990524785095169 135.13745001385  0.000297593598199004 44.7284280230879 0.000297593598198995 44.7284280230879 0.990480572026806 134.803753683508 
! Gamma         !               0.186233249196639 74.4203709304042 0.170358917332399 74.2152730026449 
! Port Impedance50               0                50               0                

2.14460511679644 0.990517483526386 134.951429660712 0.000298727977514796 44.5386259897375 0.00029872797751478 44.538625989738  0.990473140734611 134.616761545009 
! Gamma         !               0.186378445688961 74.4977481598002 0.170494674652889 74.292445820244  
! Port Impedance50               0                50               0                

2.146829810901   0.99051015520455 134.765403388041 0.000299871338494812 44.3488114237528 0.000299871338494794 44.3488114237545 0.990465685148073 134.429767918729 
! Gamma         !               0.18652361894846 74.5751258201247 0.170630413252063 74.369619073008  
! Port Impedance50               0                50               0                

2.14905450500556 0.99050279998659 134.579370619231 0.000301023758942897 44.1589837465201 0.00030102375894287 44.1589837465203 0.990458205123693 134.242772239352 
! Gamma         !               0.186668769019511 74.6525039118608 0.170766133167355 74.4467927614132 
! Port Impedance50               0                50               0                

2.15127919911012 0.9904954177264  134.393330775523 0.000302185317413579 43.9691423757946 0.000302185317413568 43.9691423757961 0.990450700514784 134.055773939442 
! Gamma         !               0.186813895946384 74.7298824354917 0.170901834436105 74.5239668859355 
! Port Impedance50               0                50               0                

2.15350389321468 0.99048800827484 134.20728327599  0.00030335609322117 43.7792867257517 0.00030335609322115 43.7792867257514 0.990443171171472 133.868772449424 
! Gamma         !               0.186958999773236 74.8072613915002 0.171037517095565 74.6011414470504 
! Port Impedance50               0                50               0                

2.15572858731924 0.990480571479744 134.021227537514 0.000304536166448803 43.5894162070286 0.000304536166448783 43.58941620703   0.990435616940711 133.681767197572 
! Gamma         !               0.187104080544118 74.884640780369  0.171173181182894 74.6783164452337 
! Port Impedance50               0                50               0                

2.1579532814238  0.990473107185916 133.835162974771 0.000305725617957793 43.399530226774  0.000305725617957777 43.3995302267727 0.990428037666284 133.494757609984 
! Gamma         !               0.18724913830297 74.9620206025805 0.171308826735161 74.7554918809605 
! Port Impedance50               0                50               0                

2.16017797552837 0.990465615235139 133.649089000209 0.00030692452939692 43.2096281886831 0.000306924529396903 43.2096281886832 0.990420433188812 133.307743110569 
! Gamma         !               0.187394173093627 75.0394008586169 0.171444453789345 74.8326677547061 
! Port Impedance50               0                50               0                

2.16240266963293 0.990458095466173 133.463005024034 0.000308132983212037 43.019709493051  0.000308132983212016 43.0197094930522 0.990412803345761 133.120723121026 
! Gamma         !               0.187539184959815 75.1167815489602 0.171580062382336 74.9098440669454 
! Port Impedance50               0                50               0                

2.16462736373749 0.990450547714763 133.276910454183 0.000309351062655603 42.8297735368034 0.000309351062655581 42.8297735368043 0.990405147971449 132.933697060824 
! Gamma         !               0.187684173945153 75.1941626740923 0.171715652550934 74.9870208181532 
! Port Impedance50               0                50               0                

2.16685205784205 0.99044297181364 133.090804696313 0.000310578851796602 42.6398197135372 0.000310578851796577 42.6398197135375 0.99039746689705 132.746664347188 
! Gamma         !               0.187829140093154 75.2715442344947 0.171851224331849 75.064198008804  
! Port Impedance50               0                50               0                

2.16907675194661 0.990435367592519 132.904687153773 0.000311816435530257 42.4498474135651 0.000311816435530241 42.4498474135654 0.990389759950608 132.559624395074 
! Gamma         !               0.187974083447223 75.3489262306489 0.171986777761704 75.1413756393723 
! Port Impedance50               0                50               0                

2.17130144605117 0.990427734878111 132.718557227593 0.000313063899588285 42.2598560239413 0.00031306389958825 42.2598560239431 0.990382026957036 132.372576617154 
! Gamma         !               0.188119004050662 75.426308663036  0.172122312877032 75.2185537103323 
! Port Impedance50               0                50               0                

2.17352614015573 0.99042007349412 132.532414316456 0.000314321330548905 42.069844928505  0.000314321330548885 42.0698449285047 0.990374267738127 132.185520423795 
! Gamma         !               0.188263901946664 75.5036915321371 0.172257829714278 75.2957322221579 
! Port Impedance50               0                50               0                

2.17575083426029 0.990412383261246 132.346257816681 0.000315588815847275 41.8798135079083 0.000315588815847263 41.8798135079078 0.990366482112562 131.998455223038 
! Gamma         !               0.188408777178319 75.5810748384329 0.172393328309801 75.372911175323  
! Port Impedance50               0                50               0                

2.17797552836485 0.990404663997189 132.160087122204 0.000316866443785856 41.6897611396532 0.000316866443785843 41.6897611396524 0.990358669895913 131.811380420582 
! Gamma         !               0.188553629788613 75.6584585824039 0.172528808699869 75.4500905703014 